<?xml version='1.0' encoding='UTF-8'?>
<DOC><DOCNO>  ZF109-313-475  </DOCNO><DOCID>09 313 475  OV: 09 313 405.andM; </DOCID><JOURNAL>PC Week  August 20 1990 v7 n33 p87(1)* Full Text COPYRIGHT Ziff-Davis Publishing Co. 1990.andM;</JOURNAL><TITLE>Sheng Labs Inc. King Jaguar 2.2. (Software Review) (one of fourevaluations of spreadsheet compilers in 'Compilers alleviatespreadsheet woes') (evaluation)</TITLE><AUTHOR>Brown, Bruce; Moser, Karen D.; Winship, Sally.andM;</AUTHOR><SUMMARY>Sheng Labs Inc's $595 King Jaguar 2.2 is a powerful,moderately-priced spreadsheet compiler that works with anyworksheet saved in .WK1 format as well as with Lotus .WKS and .WK2files.andP;  It supports all 1-2-3 commands, macros and functions andis fast and easy to use.andP;  The program can be run directly from theDOS command line and also offers a colorful menu-driven interface.andO;Buyers of King Jaguar praise its flexibility and strong debuggingand customization features.andM;</SUMMARY><DESCRIPT>Company:   Sheng Labs Inc. (products).andO;Product:   Lotus 1-2-3 (Spreadsheet software) (computer programs)King Jaguar 2.2 (Compiler).andO;Topic:     SpreadsheetsCompilersEvaluation.andM;</DESCRIPT><TEXT>Sheng Labs Inc.andM;KING JAGUAR 2.2andM;King Jaguar version 2.2 is an impressive program that works with WKX filescreated by Lotus 1-2-3 versions 1.0 through 2.2 (WKS, WK1 and WK2), and withspreadsheets created in other programs but saved in WK1 format.andP;  King Jaguaradds interface and display customization, as well as the capacity toincorporate user-defined functions created in C language or in assemblylanguage.andM;The program supports all 1-2-3 macros, slash commands and functions.andP;  KingJaguar compiled the PC Week Labs test file in 8 seconds with no errors, andthe executable file ran in 15 seconds.andP;  King Jaguar compiles both formulasand macros, and was the fastest of the three tested compilers to run thecompiled executable file.andM;King Jaguar is fast and easy to use.andP;  At minimum, all that's necessary is toenter the KING command to compile a spreadsheet and KRUN to execute theresulting application file.andM;King Jaguar can be run directly from the DOS command line or via colorfulinteractive menus that approximate the look and feel of 1-2-3.andP;  The clearlywritten and nicely illustrated manual could benefit from section tabs forbetter use as a reference tool.andM;Sheng Labs Inc., of Beaverton, Ore., can be reached at (800) 548-1270.andM;----------Buyers say .andP;  .  .andM;&quot;King Jaguar provides me with all the tools to maintain full control over anapplication and still get the high productivity of a [fourth-generationlanguage],&quot; said John Finnan, microcomputer resource consultant at the Stateof Washington's Department of Licensing in Olympia.andM;Finnan, an amateur astronomer, purchased King Jaguar for compiling his ownapplication to aid astronomers in sorting equipment purchasing options.andM;One feature that Finnan found to be essential was King Jaguar's debugger.andP;  &quot;Ihave slugged away for hours trying to find [problems], and the debugger findsit in about 10 minutes,&quot; he said.andM;George Montgomery, president of Montgomery Investment Group, a softwareanalytics firm in San Francisco, was also impressed by King Jaguar'sextensive features.andP;  &quot;There are a lot of [features] to customize applicationsand make them easier to use,&quot; he said.andM;The feature Montgomery finds most valuable is the ability to perform minimalrecalculations.andP;  &quot;With King Jaguar you get a true minimal recalculationwithout using a macro,&quot; he said.andP;  &quot;If you change numbers it will onlyrecalculate formulas related to those numbers.&quot;andM;Montgomery added that in a future version of King Jaguar he'd like to be ableto use the @Sum function in a compiled form and have the formulas retained.andO;&quot;You can have the @Sum function in the compiled form, but the formula willnot be retained within that range,&quot; he explained.andP;  &quot;If you went back in tochange a number within a cell, it wouldn't change the end result.&quot;andO;</TEXT></DOC>